+ 0.1 0 2 tcp 40 ------- 0 0.0.0.0 1.0.1.0 0 0
- 0.1 0 2 tcp 40 ------- 0 0.0.0.0 1.0.1.0 0 0
r 0.10316 0 2 tcp 40 ------- 0 0.0.0.0 1.0.1.0 0 0
+ 0.10316 2 3 tcp 40 ------- 0 0.0.0.0 1.0.1.0 0 0
- 0.10316 2 3 tcp 40 ------- 0 0.0.0.0 1.0.1.0 0 0
r 0.105224 2 3 tcp 40 ------- 0 0.0.0.0 1.0.1.0 0 0
s 1.092557175 _3_ MAC  --- 1 message 90 [0 ffffffff 0 800] ------- [4194304:255 2147483647:255 32 0] 
r 1.093277250 _4_ MAC  --- 1 message 32 [0 ffffffff 0 800] ------- [4194304:255 2147483647:255 32 0] 
s 1.756899517 _4_ MAC  --- 2 message 90 [0 ffffffff 1 800] ------- [4194305:255 2147483647:255 32 0] 
r 1.757619591 _3_ MAC  --- 2 message 32 [0 ffffffff 1 800] ------- [4194305:255 2147483647:255 32 0] 
s 1.757979591 _3_ MAC  --- 0 ARP 86 [0 ffffffff 0 806] ------- [REQUEST 0/4194304 0/4194305]
r 1.758667666 _4_ MAC  --- 0 ARP 28 [0 ffffffff 0 806] ------- [REQUEST 0/4194304 0/4194305]
s 1.759202666 _4_ MAC  --- 0 RTS 44 [52e 0 1 0] 
r 1.759554741 _3_ MAC  --- 0 RTS 44 [52e 0 1 0] 
s 1.759564741 _3_ MAC  --- 0 CTS 38 [3f4 1 0 0] 
r 1.759868815 _4_ MAC  --- 0 CTS 38 [3f4 1 0 0] 
s 1.759878815 _4_ MAC  --- 0 ARP 86 [13a 0 1 806] ------- [REPLY 1/4194305 0/4194304]
r 1.760566890 _3_ MAC  --- 0 ARP 28 [13a 0 1 806] ------- [REPLY 1/4194305 0/4194304]
s 1.760576890 _3_ MAC  --- 0 ACK 38 [0 1 0 0] 
r 1.760880964 _4_ MAC  --- 0 ACK 38 [0 1 0 0] 
s 1.761170890 _3_ MAC  --- 0 RTS 44 [58e 1 0 0] 
r 1.761522964 _4_ MAC  --- 0 RTS 44 [58e 1 0 0] 
s 1.761532964 _4_ MAC  --- 0 CTS 38 [454 0 0 0] 
r 1.761837039 _3_ MAC  --- 0 CTS 38 [454 0 0 0] 
s 1.761847039 _3_ MAC  --- 0 tcp 98 [13a 1 0 800] ------- [0:0 4194305:0 28 4194305] [0 0] 0 0
r 1.762631113 _4_ MAC  --- 0 tcp 40 [13a 1 0 800] ------- [0:0 4194305:0 28 4194305] [0 0] 1 0
s 1.762641113 _4_ MAC  --- 0 ACK 38 [0 0 0 0] 
r 1.762656113 _4_ AGT  --- 0 tcp 40 [13a 1 0 800] ------- [0:0 4194305:0 28 4194305] [0 0] 1 0
s 1.762656113 _4_ AGT  --- 3 ack 40 [0 0 0 0] ------- [4194305:0 0:0 32 0] [0 0] 0 0
r 1.762945188 _3_ MAC  --- 0 ACK 38 [0 0 0 0] 
s 1.763295113 _4_ MAC  --- 0 RTS 44 [62e 0 1 0] 
r 1.763647188 _3_ MAC  --- 0 RTS 44 [62e 0 1 0] 
s 1.763657188 _3_ MAC  --- 0 CTS 38 [4f4 1 0 0] 
r 1.763961262 _4_ MAC  --- 0 CTS 38 [4f4 1 0 0] 
s 1.763971262 _4_ MAC  --- 3 ack 118 [13a 0 1 800] ------- [4194305:0 0:0 32 4194304] [0 0] 0 0
r 1.764915337 _3_ MAC  --- 3 ack 60 [13a 0 1 800] ------- [4194305:0 0:0 32 4194304] [0 0] 1 0
s 1.764925337 _3_ MAC  --- 0 ACK 38 [0 1 0 0] 
+ 1.76494 3 2 ack 60 ------- 0 1.0.1.0 0.0.0.0 0 3
- 1.76494 3 2 ack 60 ------- 0 1.0.1.0 0.0.0.0 0 3
r 1.765229411 _4_ MAC  --- 0 ACK 38 [0 1 0 0] 
r 1.767036 3 2 ack 60 ------- 0 1.0.1.0 0.0.0.0 0 3
+ 1.767036 2 0 ack 60 ------- 0 1.0.1.0 0.0.0.0 0 3
- 1.767036 2 0 ack 60 ------- 0 1.0.1.0 0.0.0.0 0 3
r 1.770276 2 0 ack 60 ------- 0 1.0.1.0 0.0.0.0 0 3
+ 1.770276 0 2 tcp 1040 ------- 0 0.0.0.0 1.0.1.0 1 4
- 1.770276 0 2 tcp 1040 ------- 0 0.0.0.0 1.0.1.0 1 4
+ 1.770276 0 2 tcp 1040 ------- 0 0.0.0.0 1.0.1.0 2 5
- 1.774436 0 2 tcp 1040 ------- 0 0.0.0.0 1.0.1.0 2 5
r 1.777436 0 2 tcp 1040 ------- 0 0.0.0.0 1.0.1.0 1 4
+ 1.777436 2 3 tcp 1040 ------- 0 0.0.0.0 1.0.1.0 1 4
- 1.777436 2 3 tcp 1040 ------- 0 0.0.0.0 1.0.1.0 1 4
r 1.7811 2 3 tcp 1040 ------- 0 0.0.0.0 1.0.1.0 1 4
s 1.781295337 _3_ MAC  --- 0 RTS 44 [24ce 1 0 0] 
r 1.781596 0 2 tcp 1040 ------- 0 0.0.0.0 1.0.1.0 2 5
+ 1.781596 2 3 tcp 1040 ------- 0 0.0.0.0 1.0.1.0 2 5
- 1.781596 2 3 tcp 1040 ------- 0 0.0.0.0 1.0.1.0 2 5
r 1.781647411 _4_ MAC  --- 0 RTS 44 [24ce 1 0 0] 
s 1.781657411 _4_ MAC  --- 0 CTS 38 [2394 0 0 0] 
r 1.781961486 _3_ MAC  --- 0 CTS 38 [2394 0 0 0] 
s 1.781971486 _3_ MAC  --- 4 tcp 1098 [13a 1 0 800] ------- [0:0 4194305:0 29 4194305] [1 0] 0 0
r 1.78526 2 3 tcp 1040 ------- 0 0.0.0.0 1.0.1.0 2 5
r 1.790755560 _4_ MAC  --- 4 tcp 1040 [13a 1 0 800] ------- [0:0 4194305:0 29 4194305] [1 0] 1 0
s 1.790765560 _4_ MAC  --- 0 ACK 38 [0 0 0 0] 
r 1.790780560 _4_ AGT  --- 4 tcp 1040 [13a 1 0 800] ------- [0:0 4194305:0 29 4194305] [1 0] 1 0
s 1.790780560 _4_ AGT  --- 6 ack 40 [0 0 0 0] ------- [4194305:0 0:0 32 0] [1 0] 0 0
r 1.791069635 _3_ MAC  --- 0 ACK 38 [0 0 0 0] 
s 1.791219635 _3_ MAC  --- 0 RTS 44 [24ce 1 0 0] 
r 1.791571709 _4_ MAC  --- 0 RTS 44 [24ce 1 0 0] 
s 1.791581709 _4_ MAC  --- 0 CTS 38 [2394 0 0 0] 
r 1.791885784 _3_ MAC  --- 0 CTS 38 [2394 0 0 0] 
s 1.791895784 _3_ MAC  --- 5 tcp 1098 [13a 1 0 800] ------- [0:0 4194305:0 29 4194305] [2 0] 0 0
r 1.800679859 _4_ MAC  --- 5 tcp 1040 [13a 1 0 800] ------- [0:0 4194305:0 29 4194305] [2 0] 1 0
s 1.800689859 _4_ MAC  --- 0 ACK 38 [0 0 0 0] 
r 1.800704859 _4_ AGT  --- 5 tcp 1040 [13a 1 0 800] ------- [0:0 4194305:0 29 4194305] [2 0] 1 0
s 1.800704859 _4_ AGT  --- 7 ack 40 [0 0 0 0] ------- [4194305:0 0:0 32 0] [2 0] 0 0
r 1.800993933 _3_ MAC  --- 0 ACK 38 [0 0 0 0] 
s 1.801143859 _4_ MAC  --- 0 RTS 44 [62e 0 1 0] 
r 1.801495933 _3_ MAC  --- 0 RTS 44 [62e 0 1 0] 
s 1.801505933 _3_ MAC  --- 0 CTS 38 [4f4 1 0 0] 
r 1.801810008 _4_ MAC  --- 0 CTS 38 [4f4 1 0 0] 
s 1.801820008 _4_ MAC  --- 6 ack 118 [13a 0 1 800] ------- [4194305:0 0:0 32 4194304] [1 0] 0 0
r 1.802764082 _3_ MAC  --- 6 ack 60 [13a 0 1 800] ------- [4194305:0 0:0 32 4194304] [1 0] 1 0
s 1.802774082 _3_ MAC  --- 0 ACK 38 [0 1 0 0] 
+ 1.802789 3 2 ack 60 ------- 0 1.0.1.0 0.0.0.0 1 6
- 1.802789 3 2 ack 60 ------- 0 1.0.1.0 0.0.0.0 1 6
r 1.803078157 _4_ MAC  --- 0 ACK 38 [0 1 0 0] 
s 1.803388157 _4_ MAC  --- 0 RTS 44 [62e 0 1 0] 
r 1.803740231 _3_ MAC  --- 0 RTS 44 [62e 0 1 0] 
s 1.803750231 _3_ MAC  --- 0 CTS 38 [4f4 1 0 0] 
r 1.804054306 _4_ MAC  --- 0 CTS 38 [4f4 1 0 0] 
s 1.804064306 _4_ MAC  --- 7 ack 118 [13a 0 1 800] ------- [4194305:0 0:0 32 4194304] [2 0] 0 0
r 1.804885 3 2 ack 60 ------- 0 1.0.1.0 0.0.0.0 1 6
+ 1.804885 2 0 ack 60 ------- 0 1.0.1.0 0.0.0.0 1 6
- 1.804885 2 0 ack 60 ------- 0 1.0.1.0 0.0.0.0 1 6
r 1.805008380 _3_ MAC  --- 7 ack 60 [13a 0 1 800] ------- [4194305:0 0:0 32 4194304] [2 0] 1 0
s 1.805018380 _3_ MAC  --- 0 ACK 38 [0 1 0 0] 
+ 1.805033 3 2 ack 60 ------- 0 1.0.1.0 0.0.0.0 2 7
- 1.805033 3 2 ack 60 ------- 0 1.0.1.0 0.0.0.0 2 7
r 1.805322455 _4_ MAC  --- 0 ACK 38 [0 1 0 0] 
r 1.807129 3 2 ack 60 ------- 0 1.0.1.0 0.0.0.0 2 7
+ 1.807129 2 0 ack 60 ------- 0 1.0.1.0 0.0.0.0 2 7
- 1.807129 2 0 ack 60 ------- 0 1.0.1.0 0.0.0.0 2 7
r 1.808125 2 0 ack 60 ------- 0 1.0.1.0 0.0.0.0 1 6
+ 1.808125 0 2 tcp 1040 ------- 0 0.0.0.0 1.0.1.0 3 8
- 1.808125 0 2 tcp 1040 ------- 0 0.0.0.0 1.0.1.0 3 8
+ 1.808125 0 2 tcp 1040 ------- 0 0.0.0.0 1.0.1.0 4 9
r 1.810369 2 0 ack 60 ------- 0 1.0.1.0 0.0.0.0 2 7
+ 1.810369 0 2 tcp 1040 ------- 0 0.0.0.0 1.0.1.0 5 10
+ 1.810369 0 2 tcp 1040 ------- 0 0.0.0.0 1.0.1.0 6 11
- 1.812285 0 2 tcp 1040 ------- 0 0.0.0.0 1.0.1.0 4 9
r 1.815285 0 2 tcp 1040 ------- 0 0.0.0.0 1.0.1.0 3 8
+ 1.815285 2 3 tcp 1040 ------- 0 0.0.0.0 1.0.1.0 3 8
- 1.815285 2 3 tcp 1040 ------- 0 0.0.0.0 1.0.1.0 3 8
- 1.816445 0 2 tcp 1040 ------- 0 0.0.0.0 1.0.1.0 5 10
r 1.818949 2 3 tcp 1040 ------- 0 0.0.0.0 1.0.1.0 3 8
s 1.819084082 _3_ MAC  --- 0 RTS 44 [24ce 1 0 0] 
r 1.819436157 _4_ MAC  --- 0 RTS 44 [24ce 1 0 0] 
r 1.819445 0 2 tcp 1040 ------- 0 0.0.0.0 1.0.1.0 4 9
+ 1.819445 2 3 tcp 1040 ------- 0 0.0.0.0 1.0.1.0 4 9
- 1.819445 2 3 tcp 1040 ------- 0 0.0.0.0 1.0.1.0 4 9
s 1.819446157 _4_ MAC  --- 0 CTS 38 [2394 0 0 0] 
r 1.819750231 _3_ MAC  --- 0 CTS 38 [2394 0 0 0] 
s 1.819760231 _3_ MAC  --- 8 tcp 1098 [13a 1 0 800] ------- [0:0 4194305:0 29 4194305] [3 0] 0 0
- 1.820605 0 2 tcp 1040 ------- 0 0.0.0.0 1.0.1.0 6 11
r 1.823109 2 3 tcp 1040 ------- 0 0.0.0.0 1.0.1.0 4 9
r 1.823605 0 2 tcp 1040 ------- 0 0.0.0.0 1.0.1.0 5 10
+ 1.823605 2 3 tcp 1040 ------- 0 0.0.0.0 1.0.1.0 5 10
- 1.823605 2 3 tcp 1040 ------- 0 0.0.0.0 1.0.1.0 5 10
r 1.827269 2 3 tcp 1040 ------- 0 0.0.0.0 1.0.1.0 5 10
r 1.827765 0 2 tcp 1040 ------- 0 0.0.0.0 1.0.1.0 6 11
+ 1.827765 2 3 tcp 1040 ------- 0 0.0.0.0 1.0.1.0 6 11
- 1.827765 2 3 tcp 1040 ------- 0 0.0.0.0 1.0.1.0 6 11
r 1.828544306 _4_ MAC  --- 8 tcp 1040 [13a 1 0 800] ------- [0:0 4194305:0 29 4194305] [3 0] 1 0
s 1.828554306 _4_ MAC  --- 0 ACK 38 [0 0 0 0] 
r 1.828569306 _4_ AGT  --- 8 tcp 1040 [13a 1 0 800] ------- [0:0 4194305:0 29 4194305] [3 0] 1 0
s 1.828569306 _4_ AGT  --- 12 ack 40 [0 0 0 0] ------- [4194305:0 0:0 32 0] [3 0] 0 0
r 1.828858380 _3_ MAC  --- 0 ACK 38 [0 0 0 0] 
s 1.829248306 _4_ MAC  --- 0 RTS 44 [62e 0 1 0] 
r 1.829600380 _3_ MAC  --- 0 RTS 44 [62e 0 1 0] 
s 1.829610380 _3_ MAC  --- 0 CTS 38 [4f4 1 0 0] 
r 1.829914455 _4_ MAC  --- 0 CTS 38 [4f4 1 0 0] 
s 1.829924455 _4_ MAC  --- 12 ack 118 [13a 0 1 800] ------- [4194305:0 0:0 32 4194304] [3 0] 0 0
r 1.830868529 _3_ MAC  --- 12 ack 60 [13a 0 1 800] ------- [4194305:0 0:0 32 4194304] [3 0] 1 0
s 1.830878529 _3_ MAC  --- 0 ACK 38 [0 1 0 0] 
+ 1.830894 3 2 ack 60 ------- 0 1.0.1.0 0.0.0.0 3 12
- 1.830894 3 2 ack 60 ------- 0 1.0.1.0 0.0.0.0 3 12
r 1.831182604 _4_ MAC  --- 0 ACK 38 [0 1 0 0] 
r 1.831429 2 3 tcp 1040 ------- 0 0.0.0.0 1.0.1.0 6 11
s 1.831512529 _3_ MAC  --- 0 RTS 44 [24ce 1 0 0] 
r 1.831864604 _4_ MAC  --- 0 RTS 44 [24ce 1 0 0] 
s 1.831874604 _4_ MAC  --- 0 CTS 38 [2394 0 0 0] 
r 1.832178678 _3_ MAC  --- 0 CTS 38 [2394 0 0 0] 
s 1.832188678 _3_ MAC  --- 9 tcp 1098 [13a 1 0 800] ------- [0:0 4194305:0 29 4194305] [4 0] 0 0
r 1.83299 3 2 ack 60 ------- 0 1.0.1.0 0.0.0.0 3 12
+ 1.83299 2 0 ack 60 ------- 0 1.0.1.0 0.0.0.0 3 12
- 1.83299 2 0 ack 60 ------- 0 1.0.1.0 0.0.0.0 3 12
r 1.83623 2 0 ack 60 ------- 0 1.0.1.0 0.0.0.0 3 12
+ 1.83623 0 2 tcp 1040 ------- 0 0.0.0.0 1.0.1.0 7 13
- 1.83623 0 2 tcp 1040 ------- 0 0.0.0.0 1.0.1.0 7 13
+ 1.83623 0 2 tcp 1040 ------- 0 0.0.0.0 1.0.1.0 8 14
- 1.84039 0 2 tcp 1040 ------- 0 0.0.0.0 1.0.1.0 8 14
r 1.840972753 _4_ MAC  --- 9 tcp 1040 [13a 1 0 800] ------- [0:0 4194305:0 29 4194305] [4 0] 1 0
s 1.840982753 _4_ MAC  --- 0 ACK 38 [0 0 0 0] 
r 1.840997753 _4_ AGT  --- 9 tcp 1040 [13a 1 0 800] ------- [0:0 4194305:0 29 4194305] [4 0] 1 0
s 1.840997753 _4_ AGT  --- 15 ack 40 [0 0 0 0] ------- [4194305:0 0:0 32 0] [4 0] 0 0
r 1.841286828 _3_ MAC  --- 0 ACK 38 [0 0 0 0] 
s 1.841396753 _4_ MAC  --- 0 RTS 44 [62e 0 1 0] 
r 1.841748828 _3_ MAC  --- 0 RTS 44 [62e 0 1 0] 
s 1.841758828 _3_ MAC  --- 0 CTS 38 [4f4 1 0 0] 
r 1.842062902 _4_ MAC  --- 0 CTS 38 [4f4 1 0 0] 
s 1.842072902 _4_ MAC  --- 15 ack 118 [13a 0 1 800] ------- [4194305:0 0:0 32 4194304] [4 0] 0 0
r 1.843016977 _3_ MAC  --- 15 ack 60 [13a 0 1 800] ------- [4194305:0 0:0 32 4194304] [4 0] 1 0
s 1.843026977 _3_ MAC  --- 0 ACK 38 [0 1 0 0] 
+ 1.843042 3 2 ack 60 ------- 0 1.0.1.0 0.0.0.0 4 15
- 1.843042 3 2 ack 60 ------- 0 1.0.1.0 0.0.0.0 4 15
r 1.843331051 _4_ MAC  --- 0 ACK 38 [0 1 0 0] 
r 1.84339 0 2 tcp 1040 ------- 0 0.0.0.0 1.0.1.0 7 13
+ 1.84339 2 3 tcp 1040 ------- 0 0.0.0.0 1.0.1.0 7 13
- 1.84339 2 3 tcp 1040 ------- 0 0.0.0.0 1.0.1.0 7 13
s 1.843920977 _3_ MAC  --- 0 RTS 44 [24ce 1 0 0] 
r 1.844273051 _4_ MAC  --- 0 RTS 44 [24ce 1 0 0] 
s 1.844283051 _4_ MAC  --- 0 CTS 38 [2394 0 0 0] 
r 1.844587126 _3_ MAC  --- 0 CTS 38 [2394 0 0 0] 
s 1.844597126 _3_ MAC  --- 10 tcp 1098 [13a 1 0 800] ------- [0:0 4194305:0 29 4194305] [5 0] 0 0
r 1.845138 3 2 ack 60 ------- 0 1.0.1.0 0.0.0.0 4 15
+ 1.845138 2 0 ack 60 ------- 0 1.0.1.0 0.0.0.0 4 15
- 1.845138 2 0 ack 60 ------- 0 1.0.1.0 0.0.0.0 4 15
r 1.847054 2 3 tcp 1040 ------- 0 0.0.0.0 1.0.1.0 7 13
r 1.84755 0 2 tcp 1040 ------- 0 0.0.0.0 1.0.1.0 8 14
+ 1.84755 2 3 tcp 1040 ------- 0 0.0.0.0 1.0.1.0 8 14
- 1.84755 2 3 tcp 1040 ------- 0 0.0.0.0 1.0.1.0 8 14
r 1.848378 2 0 ack 60 ------- 0 1.0.1.0 0.0.0.0 4 15
+ 1.848378 0 2 tcp 1040 ------- 0 0.0.0.0 1.0.1.0 9 16
- 1.848378 0 2 tcp 1040 ------- 0 0.0.0.0 1.0.1.0 9 16
+ 1.848378 0 2 tcp 1040 ------- 0 0.0.0.0 1.0.1.0 10 17
r 1.851214 2 3 tcp 1040 ------- 0 0.0.0.0 1.0.1.0 8 14
- 1.852538 0 2 tcp 1040 ------- 0 0.0.0.0 1.0.1.0 10 17
r 1.853381200 _4_ MAC  --- 10 tcp 1040 [13a 1 0 800] ------- [0:0 4194305:0 29 4194305] [5 0] 1 0
s 1.853391200 _4_ MAC  --- 0 ACK 38 [0 0 0 0] 
r 1.853406200 _4_ AGT  --- 10 tcp 1040 [13a 1 0 800] ------- [0:0 4194305:0 29 4194305] [5 0] 1 0
s 1.853406200 _4_ AGT  --- 18 ack 40 [0 0 0 0] ------- [4194305:0 0:0 32 0] [5 0] 0 0
r 1.853695275 _3_ MAC  --- 0 ACK 38 [0 0 0 0] 
s 1.854185275 _3_ MAC  --- 0 RTS 44 [24ce 1 0 0] 
r 1.854537349 _4_ MAC  --- 0 RTS 44 [24ce 1 0 0] 
s 1.854547349 _4_ MAC  --- 0 CTS 38 [2394 0 0 0] 
r 1.854851424 _3_ MAC  --- 0 CTS 38 [2394 0 0 0] 
s 1.854861424 _3_ MAC  --- 11 tcp 1098 [13a 1 0 800] ------- [0:0 4194305:0 29 4194305] [6 0] 0 0
r 1.855538 0 2 tcp 1040 ------- 0 0.0.0.0 1.0.1.0 9 16
+ 1.855538 2 3 tcp 1040 ------- 0 0.0.0.0 1.0.1.0 9 16
- 1.855538 2 3 tcp 1040 ------- 0 0.0.0.0 1.0.1.0 9 16
r 1.859202 2 3 tcp 1040 ------- 0 0.0.0.0 1.0.1.0 9 16
r 1.859698 0 2 tcp 1040 ------- 0 0.0.0.0 1.0.1.0 10 17
+ 1.859698 2 3 tcp 1040 ------- 0 0.0.0.0 1.0.1.0 10 17
- 1.859698 2 3 tcp 1040 ------- 0 0.0.0.0 1.0.1.0 10 17
r 1.863362 2 3 tcp 1040 ------- 0 0.0.0.0 1.0.1.0 10 17
r 1.863645498 _4_ MAC  --- 11 tcp 1040 [13a 1 0 800] ------- [0:0 4194305:0 29 4194305] [6 0] 1 0
s 1.863655498 _4_ MAC  --- 0 ACK 38 [0 0 0 0] 
r 1.863670498 _4_ AGT  --- 11 tcp 1040 [13a 1 0 800] ------- [0:0 4194305:0 29 4194305] [6 0] 1 0
s 1.863670498 _4_ AGT  --- 19 ack 40 [0 0 0 0] ------- [4194305:0 0:0 32 0] [6 0] 0 0
r 1.863959573 _3_ MAC  --- 0 ACK 38 [0 0 0 0] 
s 1.864169498 _4_ MAC  --- 0 RTS 44 [62e 0 1 0] 
r 1.864521573 _3_ MAC  --- 0 RTS 44 [62e 0 1 0] 
s 1.864531573 _3_ MAC  --- 0 CTS 38 [4f4 1 0 0] 
r 1.864835647 _4_ MAC  --- 0 CTS 38 [4f4 1 0 0] 
s 1.864845647 _4_ MAC  --- 18 ack 118 [13a 0 1 800] ------- [4194305:0 0:0 32 4194304] [5 0] 0 0
r 1.865789722 _3_ MAC  --- 18 ack 60 [13a 0 1 800] ------- [4194305:0 0:0 32 4194304] [5 0] 1 0
s 1.865799722 _3_ MAC  --- 0 ACK 38 [0 1 0 0] 
+ 1.865815 3 2 ack 60 ------- 0 1.0.1.0 0.0.0.0 5 18
- 1.865815 3 2 ack 60 ------- 0 1.0.1.0 0.0.0.0 5 18
r 1.866103796 _4_ MAC  --- 0 ACK 38 [0 1 0 0] 
s 1.866453796 _4_ MAC  --- 0 RTS 44 [62e 0 1 0] 
r 1.866805871 _3_ MAC  --- 0 RTS 44 [62e 0 1 0] 
s 1.866815871 _3_ MAC  --- 0 CTS 38 [4f4 1 0 0] 
r 1.867119946 _4_ MAC  --- 0 CTS 38 [4f4 1 0 0] 
s 1.867129946 _4_ MAC  --- 19 ack 118 [13a 0 1 800] ------- [4194305:0 0:0 32 4194304] [6 0] 0 0
r 1.867911 3 2 ack 60 ------- 0 1.0.1.0 0.0.0.0 5 18
+ 1.867911 2 0 ack 60 ------- 0 1.0.1.0 0.0.0.0 5 18
- 1.867911 2 0 ack 60 ------- 0 1.0.1.0 0.0.0.0 5 18
r 1.868074020 _3_ MAC  --- 19 ack 60 [13a 0 1 800] ------- [4194305:0 0:0 32 4194304] [6 0] 1 0
s 1.868084020 _3_ MAC  --- 0 ACK 38 [0 1 0 0] 
+ 1.868099 3 2 ack 60 ------- 0 1.0.1.0 0.0.0.0 6 19
- 1.868099 3 2 ack 60 ------- 0 1.0.1.0 0.0.0.0 6 19
r 1.868388095 _4_ MAC  --- 0 ACK 38 [0 1 0 0] 
s 1.868538020 _3_ MAC  --- 0 RTS 44 [24ce 1 0 0] 
r 1.868890095 _4_ MAC  --- 0 RTS 44 [24ce 1 0 0] 
s 1.868900095 _4_ MAC  --- 0 CTS 38 [2394 0 0 0] 
r 1.869204169 _3_ MAC  --- 0 CTS 38 [2394 0 0 0] 
s 1.869214169 _3_ MAC  --- 13 tcp 1098 [13a 1 0 800] ------- [0:0 4194305:0 29 4194305] [7 0] 0 0
r 1.870195 3 2 ack 60 ------- 0 1.0.1.0 0.0.0.0 6 19
+ 1.870195 2 0 ack 60 ------- 0 1.0.1.0 0.0.0.0 6 19
- 1.870195 2 0 ack 60 ------- 0 1.0.1.0 0.0.0.0 6 19
r 1.871151 2 0 ack 60 ------- 0 1.0.1.0 0.0.0.0 5 18
+ 1.871151 0 2 tcp 1040 ------- 0 0.0.0.0 1.0.1.0 11 20
- 1.871151 0 2 tcp 1040 ------- 0 0.0.0.0 1.0.1.0 11 20
+ 1.871151 0 2 tcp 1040 ------- 0 0.0.0.0 1.0.1.0 12 21
r 1.873435 2 0 ack 60 ------- 0 1.0.1.0 0.0.0.0 6 19
+ 1.873435 0 2 tcp 1040 ------- 0 0.0.0.0 1.0.1.0 13 22
+ 1.873435 0 2 tcp 1040 ------- 0 0.0.0.0 1.0.1.0 14 23
- 1.875311 0 2 tcp 1040 ------- 0 0.0.0.0 1.0.1.0 12 21
r 1.877998244 _4_ MAC  --- 13 tcp 1040 [13a 1 0 800] ------- [0:0 4194305:0 29 4194305] [7 0] 1 0
s 1.878008244 _4_ MAC  --- 0 ACK 38 [0 0 0 0] 
r 1.878023244 _4_ AGT  --- 13 tcp 1040 [13a 1 0 800] ------- [0:0 4194305:0 29 4194305] [7 0] 1 0
s 1.878023244 _4_ AGT  --- 24 ack 40 [0 0 0 0] ------- [4194305:0 0:0 32 0] [7 0] 0 0
r 1.878311 0 2 tcp 1040 ------- 0 0.0.0.0 1.0.1.0 11 20
+ 1.878311 2 3 tcp 1040 ------- 0 0.0.0.0 1.0.1.0 11 20
- 1.878311 2 3 tcp 1040 ------- 0 0.0.0.0 1.0.1.0 11 20
r 1.878312318 _3_ MAC  --- 0 ACK 38 [0 0 0 0] 
s 1.878582244 _4_ MAC  --- 0 RTS 44 [62e 0 1 0] 
r 1.878934318 _3_ MAC  --- 0 RTS 44 [62e 0 1 0] 
s 1.878944318 _3_ MAC  --- 0 CTS 38 [4f4 1 0 0] 
r 1.879248393 _4_ MAC  --- 0 CTS 38 [4f4 1 0 0] 
s 1.879258393 _4_ MAC  --- 24 ack 118 [13a 0 1 800] ------- [4194305:0 0:0 32 4194304] [7 0] 0 0
- 1.879471 0 2 tcp 1040 ------- 0 0.0.0.0 1.0.1.0 13 22
r 1.880202467 _3_ MAC  --- 24 ack 60 [13a 0 1 800] ------- [4194305:0 0:0 32 4194304] [7 0] 1 0
s 1.880212467 _3_ MAC  --- 0 ACK 38 [0 1 0 0] 
+ 1.880227 3 2 ack 60 ------- 0 1.0.1.0 0.0.0.0 7 24
- 1.880227 3 2 ack 60 ------- 0 1.0.1.0 0.0.0.0 7 24
r 1.880516542 _4_ MAC  --- 0 ACK 38 [0 1 0 0] 
s 1.880666467 _3_ MAC  --- 0 RTS 44 [24ce 1 0 0] 
r 1.881018542 _4_ MAC  --- 0 RTS 44 [24ce 1 0 0] 
s 1.881028542 _4_ MAC  --- 0 CTS 38 [2394 0 0 0] 
r 1.881332616 _3_ MAC  --- 0 CTS 38 [2394 0 0 0] 
s 1.881342616 _3_ MAC  --- 14 tcp 1098 [13a 1 0 800] ------- [0:0 4194305:0 29 4194305] [8 0] 0 0
r 1.881975 2 3 tcp 1040 ------- 0 0.0.0.0 1.0.1.0 11 20
r 1.882323 3 2 ack 60 ------- 0 1.0.1.0 0.0.0.0 7 24
+ 1.882323 2 0 ack 60 ------- 0 1.0.1.0 0.0.0.0 7 24
- 1.882323 2 0 ack 60 ------- 0 1.0.1.0 0.0.0.0 7 24
r 1.882471 0 2 tcp 1040 ------- 0 0.0.0.0 1.0.1.0 12 21
+ 1.882471 2 3 tcp 1040 ------- 0 0.0.0.0 1.0.1.0 12 21
- 1.882471 2 3 tcp 1040 ------- 0 0.0.0.0 1.0.1.0 12 21
- 1.883631 0 2 tcp 1040 ------- 0 0.0.0.0 1.0.1.0 14 23
r 1.885563 2 0 ack 60 ------- 0 1.0.1.0 0.0.0.0 7 24
+ 1.885563 0 2 tcp 1040 ------- 0 0.0.0.0 1.0.1.0 15 25
+ 1.885563 0 2 tcp 1040 ------- 0 0.0.0.0 1.0.1.0 16 26
r 1.886135 2 3 tcp 1040 ------- 0 0.0.0.0 1.0.1.0 12 21
r 1.886631 0 2 tcp 1040 ------- 0 0.0.0.0 1.0.1.0 13 22
+ 1.886631 2 3 tcp 1040 ------- 0 0.0.0.0 1.0.1.0 13 22
- 1.886631 2 3 tcp 1040 ------- 0 0.0.0.0 1.0.1.0 13 22
- 1.887791 0 2 tcp 1040 ------- 0 0.0.0.0 1.0.1.0 15 25
r 1.890126691 _4_ MAC  --- 14 tcp 1040 [13a 1 0 800] ------- [0:0 4194305:0 29 4194305] [8 0] 1 0
s 1.890136691 _4_ MAC  --- 0 ACK 38 [0 0 0 0] 
r 1.890151691 _4_ AGT  --- 14 tcp 1040 [13a 1 0 800] ------- [0:0 4194305:0 29 4194305] [8 0] 1 0
s 1.890151691 _4_ AGT  --- 27 ack 40 [0 0 0 0] ------- [4194305:0 0:0 32 0] [8 0] 0 0
r 1.890295 2 3 tcp 1040 ------- 0 0.0.0.0 1.0.1.0 13 22
r 1.890440765 _3_ MAC  --- 0 ACK 38 [0 0 0 0] 
s 1.890530765 _3_ MAC  --- 0 RTS 44 [24ce 1 0 0] 
r 1.890791 0 2 tcp 1040 ------- 0 0.0.0.0 1.0.1.0 14 23
+ 1.890791 2 3 tcp 1040 ------- 0 0.0.0.0 1.0.1.0 14 23
- 1.890791 2 3 tcp 1040 ------- 0 0.0.0.0 1.0.1.0 14 23
r 1.890882840 _4_ MAC  --- 0 RTS 44 [24ce 1 0 0] 
s 1.890892840 _4_ MAC  --- 0 CTS 38 [2394 0 0 0] 
r 1.891196915 _3_ MAC  --- 0 CTS 38 [2394 0 0 0] 
s 1.891206915 _3_ MAC  --- 16 tcp 1098 [13a 1 0 800] ------- [0:0 4194305:0 29 4194305] [9 0] 0 0
- 1.891951 0 2 tcp 1040 ------- 0 0.0.0.0 1.0.1.0 16 26
r 1.894455 2 3 tcp 1040 ------- 0 0.0.0.0 1.0.1.0 14 23
r 1.894951 0 2 tcp 1040 ------- 0 0.0.0.0 1.0.1.0 15 25
+ 1.894951 2 3 tcp 1040 ------- 0 0.0.0.0 1.0.1.0 15 25
- 1.894951 2 3 tcp 1040 ------- 0 0.0.0.0 1.0.1.0 15 25
r 1.898615 2 3 tcp 1040 ------- 0 0.0.0.0 1.0.1.0 15 25
r 1.899111 0 2 tcp 1040 ------- 0 0.0.0.0 1.0.1.0 16 26
+ 1.899111 2 3 tcp 1040 ------- 0 0.0.0.0 1.0.1.0 16 26
- 1.899111 2 3 tcp 1040 ------- 0 0.0.0.0 1.0.1.0 16 26
r 1.899990989 _4_ MAC  --- 16 tcp 1040 [13a 1 0 800] ------- [0:0 4194305:0 29 4194305] [9 0] 1 0
s 1.900000989 _4_ MAC  --- 0 ACK 38 [0 0 0 0] 
r 1.900015989 _4_ AGT  --- 16 tcp 1040 [13a 1 0 800] ------- [0:0 4194305:0 29 4194305] [9 0] 1 0
s 1.900015989 _4_ AGT  --- 28 ack 40 [0 0 0 0] ------- [4194305:0 0:0 32 0] [9 0] 0 0
r 1.900305064 _3_ MAC  --- 0 ACK 38 [0 0 0 0] 
s 1.900574989 _4_ MAC  --- 0 RTS 44 [62e 0 1 0] 
r 1.900927064 _3_ MAC  --- 0 RTS 44 [62e 0 1 0] 
s 1.900937064 _3_ MAC  --- 0 CTS 38 [4f4 1 0 0] 
r 1.901241138 _4_ MAC  --- 0 CTS 38 [4f4 1 0 0] 
s 1.901251138 _4_ MAC  --- 27 ack 118 [13a 0 1 800] ------- [4194305:0 0:0 32 4194304] [8 0] 0 0
r 1.902195213 _3_ MAC  --- 27 ack 60 [13a 0 1 800] ------- [4194305:0 0:0 32 4194304] [8 0] 1 0
s 1.902205213 _3_ MAC  --- 0 ACK 38 [0 1 0 0] 
+ 1.90222 3 2 ack 60 ------- 0 1.0.1.0 0.0.0.0 8 27
- 1.90222 3 2 ack 60 ------- 0 1.0.1.0 0.0.0.0 8 27
r 1.902509287 _4_ MAC  --- 0 ACK 38 [0 1 0 0] 
r 1.902775 2 3 tcp 1040 ------- 0 0.0.0.0 1.0.1.0 16 26
s 1.902779287 _4_ MAC  --- 0 RTS 44 [62e 0 1 0] 
r 1.903131362 _3_ MAC  --- 0 RTS 44 [62e 0 1 0] 
s 1.903141362 _3_ MAC  --- 0 CTS 38 [4f4 1 0 0] 
r 1.903445436 _4_ MAC  --- 0 CTS 38 [4f4 1 0 0] 
s 1.903455436 _4_ MAC  --- 28 ack 118 [13a 0 1 800] ------- [4194305:0 0:0 32 4194304] [9 0] 0 0
r 1.904316 3 2 ack 60 ------- 0 1.0.1.0 0.0.0.0 8 27
+ 1.904316 2 0 ack 60 ------- 0 1.0.1.0 0.0.0.0 8 27
- 1.904316 2 0 ack 60 ------- 0 1.0.1.0 0.0.0.0 8 27
r 1.904399511 _3_ MAC  --- 28 ack 60 [13a 0 1 800] ------- [4194305:0 0:0 32 4194304] [9 0] 1 0
s 1.904409511 _3_ MAC  --- 0 ACK 38 [0 1 0 0] 
+ 1.904425 3 2 ack 60 ------- 0 1.0.1.0 0.0.0.0 9 28
- 1.904425 3 2 ack 60 ------- 0 1.0.1.0 0.0.0.0 9 28
r 1.904713585 _4_ MAC  --- 0 ACK 38 [0 1 0 0] 
s 1.904923511 _3_ MAC  --- 0 RTS 44 [24ce 1 0 0] 
r 1.905275585 _4_ MAC  --- 0 RTS 44 [24ce 1 0 0] 
s 1.905285585 _4_ MAC  --- 0 CTS 38 [2394 0 0 0] 
r 1.905589660 _3_ MAC  --- 0 CTS 38 [2394 0 0 0] 
s 1.905599660 _3_ MAC  --- 17 tcp 1098 [13a 1 0 800] ------- [0:0 4194305:0 29 4194305] [10 0] 0 0
r 1.906521 3 2 ack 60 ------- 0 1.0.1.0 0.0.0.0 9 28
+ 1.906521 2 0 ack 60 ------- 0 1.0.1.0 0.0.0.0 9 28
- 1.906521 2 0 ack 60 ------- 0 1.0.1.0 0.0.0.0 9 28
r 1.907556 2 0 ack 60 ------- 0 1.0.1.0 0.0.0.0 8 27
+ 1.907556 0 2 tcp 1040 ------- 0 0.0.0.0 1.0.1.0 17 29
- 1.907556 0 2 tcp 1040 ------- 0 0.0.0.0 1.0.1.0 17 29
+ 1.907556 0 2 tcp 1040 ------- 0 0.0.0.0 1.0.1.0 18 30
r 1.909761 2 0 ack 60 ------- 0 1.0.1.0 0.0.0.0 9 28
+ 1.909761 0 2 tcp 1040 ------- 0 0.0.0.0 1.0.1.0 19 31
+ 1.909761 0 2 tcp 1040 ------- 0 0.0.0.0 1.0.1.0 20 32
- 1.911716 0 2 tcp 1040 ------- 0 0.0.0.0 1.0.1.0 18 30
r 1.914383734 _4_ MAC  --- 17 tcp 1040 [13a 1 0 800] ------- [0:0 4194305:0 29 4194305] [10 0] 1 0
s 1.914393734 _4_ MAC  --- 0 ACK 38 [0 0 0 0] 
r 1.914408734 _4_ AGT  --- 17 tcp 1040 [13a 1 0 800] ------- [0:0 4194305:0 29 4194305] [10 0] 1 0
s 1.914408734 _4_ AGT  --- 33 ack 40 [0 0 0 0] ------- [4194305:0 0:0 32 0] [10 0] 0 0
r 1.914697809 _3_ MAC  --- 0 ACK 38 [0 0 0 0] 
r 1.914716 0 2 tcp 1040 ------- 0 0.0.0.0 1.0.1.0 17 29
+ 1.914716 2 3 tcp 1040 ------- 0 0.0.0.0 1.0.1.0 17 29
- 1.914716 2 3 tcp 1040 ------- 0 0.0.0.0 1.0.1.0 17 29
s 1.914787734 _4_ MAC  --- 0 RTS 44 [62e 0 1 0] 
r 1.915139809 _3_ MAC  --- 0 RTS 44 [62e 0 1 0] 
s 1.915149809 _3_ MAC  --- 0 CTS 38 [4f4 1 0 0] 
r 1.915453883 _4_ MAC  --- 0 CTS 38 [4f4 1 0 0] 
s 1.915463883 _4_ MAC  --- 33 ack 118 [13a 0 1 800] ------- [4194305:0 0:0 32 4194304] [10 0] 0 0
- 1.915876 0 2 tcp 1040 ------- 0 0.0.0.0 1.0.1.0 19 31
r 1.916407958 _3_ MAC  --- 33 ack 60 [13a 0 1 800] ------- [4194305:0 0:0 32 4194304] [10 0] 1 0
s 1.916417958 _3_ MAC  --- 0 ACK 38 [0 1 0 0] 
+ 1.916433 3 2 ack 60 ------- 0 1.0.1.0 0.0.0.0 10 33
- 1.916433 3 2 ack 60 ------- 0 1.0.1.0 0.0.0.0 10 33
r 1.916722033 _4_ MAC  --- 0 ACK 38 [0 1 0 0] 
s 1.916911958 _3_ MAC  --- 0 RTS 44 [24ce 1 0 0] 
r 1.917264033 _4_ MAC  --- 0 RTS 44 [24ce 1 0 0] 
s 1.917274033 _4_ MAC  --- 0 CTS 38 [2394 0 0 0] 
r 1.917578107 _3_ MAC  --- 0 CTS 38 [2394 0 0 0] 
s 1.917588107 _3_ MAC  --- 20 tcp 1098 [13a 1 0 800] ------- [0:0 4194305:0 29 4194305] [11 0] 0 0
r 1.91838 2 3 tcp 1040 ------- 0 0.0.0.0 1.0.1.0 17 29
r 1.918529 3 2 ack 60 ------- 0 1.0.1.0 0.0.0.0 10 33
+ 1.918529 2 0 ack 60 ------- 0 1.0.1.0 0.0.0.0 10 33
- 1.918529 2 0 ack 60 ------- 0 1.0.1.0 0.0.0.0 10 33
r 1.918876 0 2 tcp 1040 ------- 0 0.0.0.0 1.0.1.0 18 30
+ 1.918876 2 3 tcp 1040 ------- 0 0.0.0.0 1.0.1.0 18 30
- 1.918876 2 3 tcp 1040 ------- 0 0.0.0.0 1.0.1.0 18 30
- 1.920036 0 2 tcp 1040 ------- 0 0.0.0.0 1.0.1.0 20 32
r 1.921769 2 0 ack 60 ------- 0 1.0.1.0 0.0.0.0 10 33
+ 1.921769 0 2 tcp 1040 ------- 0 0.0.0.0 1.0.1.0 21 34
+ 1.921769 0 2 tcp 1040 ------- 0 0.0.0.0 1.0.1.0 22 35
r 1.92254 2 3 tcp 1040 ------- 0 0.0.0.0 1.0.1.0 18 30
r 1.923036 0 2 tcp 1040 ------- 0 0.0.0.0 1.0.1.0 19 31
+ 1.923036 2 3 tcp 1040 ------- 0 0.0.0.0 1.0.1.0 19 31
- 1.923036 2 3 tcp 1040 ------- 0 0.0.0.0 1.0.1.0 19 31
- 1.924196 0 2 tcp 1040 ------- 0 0.0.0.0 1.0.1.0 21 34
r 1.926372182 _4_ MAC  --- 20 tcp 1040 [13a 1 0 800] ------- [0:0 4194305:0 29 4194305] [11 0] 1 0
s 1.926382182 _4_ MAC  --- 0 ACK 38 [0 0 0 0] 
r 1.926397182 _4_ AGT  --- 20 tcp 1040 [13a 1 0 800] ------- [0:0 4194305:0 29 4194305] [11 0] 1 0
s 1.926397182 _4_ AGT  --- 36 ack 40 [0 0 0 0] ------- [4194305:0 0:0 32 0] [11 0] 0 0
r 1.926686256 _3_ MAC  --- 0 ACK 38 [0 0 0 0] 
r 1.9267 2 3 tcp 1040 ------- 0 0.0.0.0 1.0.1.0 19 31
s 1.927056182 _4_ MAC  --- 0 RTS 44 [62e 0 1 0] 
r 1.927196 0 2 tcp 1040 ------- 0 0.0.0.0 1.0.1.0 20 32
+ 1.927196 2 3 tcp 1040 ------- 0 0.0.0.0 1.0.1.0 20 32
- 1.927196 2 3 tcp 1040 ------- 0 0.0.0.0 1.0.1.0 20 32
r 1.927408256 _3_ MAC  --- 0 RTS 44 [62e 0 1 0] 
s 1.927418256 _3_ MAC  --- 0 CTS 38 [4f4 1 0 0] 
r 1.927722331 _4_ MAC  --- 0 CTS 38 [4f4 1 0 0] 
s 1.927732331 _4_ MAC  --- 36 ack 118 [13a 0 1 800] ------- [4194305:0 0:0 32 4194304] [11 0] 0 0
- 1.928356 0 2 tcp 1040 ------- 0 0.0.0.0 1.0.1.0 22 35
r 1.928676405 _3_ MAC  --- 36 ack 60 [13a 0 1 800] ------- [4194305:0 0:0 32 4194304] [11 0] 1 0
s 1.928686405 _3_ MAC  --- 0 ACK 38 [0 1 0 0] 
+ 1.928701 3 2 ack 60 ------- 0 1.0.1.0 0.0.0.0 11 36
- 1.928701 3 2 ack 60 ------- 0 1.0.1.0 0.0.0.0 11 36
r 1.928990480 _4_ MAC  --- 0 ACK 38 [0 1 0 0] 
s 1.929140405 _3_ MAC  --- 0 RTS 44 [24ce 1 0 0] 
r 1.929492480 _4_ MAC  --- 0 RTS 44 [24ce 1 0 0] 
s 1.929502480 _4_ MAC  --- 0 CTS 38 [2394 0 0 0] 
r 1.929806554 _3_ MAC  --- 0 CTS 38 [2394 0 0 0] 
s 1.929816554 _3_ MAC  --- 21 tcp 1098 [13a 1 0 800] ------- [0:0 4194305:0 29 4194305] [12 0] 0 0
r 1.930797 3 2 ack 60 ------- 0 1.0.1.0 0.0.0.0 11 36
+ 1.930797 2 0 ack 60 ------- 0 1.0.1.0 0.0.0.0 11 36
- 1.930797 2 0 ack 60 ------- 0 1.0.1.0 0.0.0.0 11 36
r 1.93086 2 3 tcp 1040 ------- 0 0.0.0.0 1.0.1.0 20 32
r 1.931356 0 2 tcp 1040 ------- 0 0.0.0.0 1.0.1.0 21 34
+ 1.931356 2 3 tcp 1040 ------- 0 0.0.0.0 1.0.1.0 21 34
- 1.931356 2 3 tcp 1040 ------- 0 0.0.0.0 1.0.1.0 21 34
r 1.934037 2 0 ack 60 ------- 0 1.0.1.0 0.0.0.0 11 36
+ 1.934037 0 2 tcp 1040 ------- 0 0.0.0.0 1.0.1.0 23 37
- 1.934037 0 2 tcp 1040 ------- 0 0.0.0.0 1.0.1.0 23 37
+ 1.934037 0 2 tcp 1040 ------- 0 0.0.0.0 1.0.1.0 24 38
r 1.93502 2 3 tcp 1040 ------- 0 0.0.0.0 1.0.1.0 21 34
r 1.935516 0 2 tcp 1040 ------- 0 0.0.0.0 1.0.1.0 22 35
+ 1.935516 2 3 tcp 1040 ------- 0 0.0.0.0 1.0.1.0 22 35
- 1.935516 2 3 tcp 1040 ------- 0 0.0.0.0 1.0.1.0 22 35
- 1.938197 0 2 tcp 1040 ------- 0 0.0.0.0 1.0.1.0 24 38
r 1.938600629 _4_ MAC  --- 21 tcp 1040 [13a 1 0 800] ------- [0:0 4194305:0 29 4194305] [12 0] 1 0
s 1.938610629 _4_ MAC  --- 0 ACK 38 [0 0 0 0] 
r 1.938625629 _4_ AGT  --- 21 tcp 1040 [13a 1 0 800] ------- [0:0 4194305:0 29 4194305] [12 0] 1 0
s 1.938625629 _4_ AGT  --- 39 ack 40 [0 0 0 0] ------- [4194305:0 0:0 32 0] [12 0] 0 0
r 1.938914703 _3_ MAC  --- 0 ACK 38 [0 0 0 0] 
s 1.939004629 _4_ MAC  --- 0 RTS 44 [62e 0 1 0] 
r 1.93918 2 3 tcp 1040 ------- 0 0.0.0.0 1.0.1.0 22 35
r 1.939356703 _3_ MAC  --- 0 RTS 44 [62e 0 1 0] 
s 1.939366703 _3_ MAC  --- 0 CTS 38 [4f4 1 0 0] 
r 1.939670778 _4_ MAC  --- 0 CTS 38 [4f4 1 0 0] 
s 1.939680778 _4_ MAC  --- 39 ack 118 [13a 0 1 800] ------- [4194305:0 0:0 32 4194304] [12 0] 0 0
r 1.940624852 _3_ MAC  --- 39 ack 60 [13a 0 1 800] ------- [4194305:0 0:0 32 4194304] [12 0] 1 0
s 1.940634852 _3_ MAC  --- 0 ACK 38 [0 1 0 0] 
+ 1.94065 3 2 ack 60 ------- 0 1.0.1.0 0.0.0.0 12 39
- 1.94065 3 2 ack 60 ------- 0 1.0.1.0 0.0.0.0 12 39
r 1.940938927 _4_ MAC  --- 0 ACK 38 [0 1 0 0] 
s 1.941128852 _3_ MAC  --- 0 RTS 44 [24ce 1 0 0] 
r 1.941197 0 2 tcp 1040 ------- 0 0.0.0.0 1.0.1.0 23 37
+ 1.941197 2 3 tcp 1040 ------- 0 0.0.0.0 1.0.1.0 23 37
- 1.941197 2 3 tcp 1040 ------- 0 0.0.0.0 1.0.1.0 23 37
r 1.941480927 _4_ MAC  --- 0 RTS 44 [24ce 1 0 0] 
s 1.941490927 _4_ MAC  --- 0 CTS 38 [2394 0 0 0] 
r 1.941795002 _3_ MAC  --- 0 CTS 38 [2394 0 0 0] 
s 1.941805002 _3_ MAC  --- 22 tcp 1098 [13a 1 0 800] ------- [0:0 4194305:0 29 4194305] [13 0] 0 0
r 1.942746 3 2 ack 60 ------- 0 1.0.1.0 0.0.0.0 12 39
+ 1.942746 2 0 ack 60 ------- 0 1.0.1.0 0.0.0.0 12 39
- 1.942746 2 0 ack 60 ------- 0 1.0.1.0 0.0.0.0 12 39
r 1.944861 2 3 tcp 1040 ------- 0 0.0.0.0 1.0.1.0 23 37
r 1.945357 0 2 tcp 1040 ------- 0 0.0.0.0 1.0.1.0 24 38
+ 1.945357 2 3 tcp 1040 ------- 0 0.0.0.0 1.0.1.0 24 38
- 1.945357 2 3 tcp 1040 ------- 0 0.0.0.0 1.0.1.0 24 38
r 1.945986 2 0 ack 60 ------- 0 1.0.1.0 0.0.0.0 12 39
+ 1.945986 0 2 tcp 1040 ------- 0 0.0.0.0 1.0.1.0 25 40
- 1.945986 0 2 tcp 1040 ------- 0 0.0.0.0 1.0.1.0 25 40
+ 1.945986 0 2 tcp 1040 ------- 0 0.0.0.0 1.0.1.0 26 41
r 1.949021 2 3 tcp 1040 ------- 0 0.0.0.0 1.0.1.0 24 38
- 1.950146 0 2 tcp 1040 ------- 0 0.0.0.0 1.0.1.0 26 41
r 1.950589076 _4_ MAC  --- 22 tcp 1040 [13a 1 0 800] ------- [0:0 4194305:0 29 4194305] [13 0] 1 0
s 1.950599076 _4_ MAC  --- 0 ACK 38 [0 0 0 0] 
r 1.950614076 _4_ AGT  --- 22 tcp 1040 [13a 1 0 800] ------- [0:0 4194305:0 29 4194305] [13 0] 1 0
s 1.950614076 _4_ AGT  --- 42 ack 40 [0 0 0 0] ------- [4194305:0 0:0 32 0] [13 0] 0 0
r 1.950903151 _3_ MAC  --- 0 ACK 38 [0 0 0 0] 
s 1.950953151 _3_ MAC  --- 0 RTS 44 [24ce 1 0 0] 
r 1.951305225 _4_ MAC  --- 0 RTS 44 [24ce 1 0 0] 
s 1.951315225 _4_ MAC  --- 0 CTS 38 [2394 0 0 0] 
r 1.951619300 _3_ MAC  --- 0 CTS 38 [2394 0 0 0] 
s 1.951629300 _3_ MAC  --- 23 tcp 1098 [13a 1 0 800] ------- [0:0 4194305:0 29 4194305] [14 0] 0 0
r 1.953146 0 2 tcp 1040 ------- 0 0.0.0.0 1.0.1.0 25 40
+ 1.953146 2 3 tcp 1040 ------- 0 0.0.0.0 1.0.1.0 25 40
- 1.953146 2 3 tcp 1040 ------- 0 0.0.0.0 1.0.1.0 25 40
r 1.95681 2 3 tcp 1040 ------- 0 0.0.0.0 1.0.1.0 25 40
r 1.957306 0 2 tcp 1040 ------- 0 0.0.0.0 1.0.1.0 26 41